[Molden Format]
made by pyscf v[2.12.1]
[Atoms] (AU)
C   1   6     0.00000000000000     2.63616794376826     0.00000000000000
C   2   6     2.28381527976023     1.31808397188413     0.00000000000000
C   3   6     2.28381527976023    -1.31808397188413     0.00000000000000
C   4   6     0.00000000000000    -2.63616794376826     0.00000000000000
C   5   6    -2.28381527976023    -1.31808397188413     0.00000000000000
C   6   6    -2.28381527976023     1.31808397188413     0.00000000000000
H   7   1     0.00000000000000     4.68463106279679     0.00000000000000
H   8   1     4.06291116781488     2.34231553139839     0.00000000000000
H   9   1     4.06291116781488    -2.34231553139839     0.00000000000000
H   10   1     0.00000000000000    -4.68463106279679     0.00000000000000
H   11   1    -4.06291116781488    -2.34231553139839     0.00000000000000
H   12   1    -4.06291116781488     2.34231553139839     0.00000000000000
[GTO]
1 0
 s    8 1.00
                  6665  0.00069158396281299
                  1000  0.0053257961529341
                   228   0.027060721042034
                 64.71    0.10165684614077
                 21.06     0.2745748236174
                 7.495    0.44829431892377
                 2.797    0.28490261071525
                0.5215   0.015194859206082
 s    8 1.00
                  6665  -0.00029326965268655
                  1000  -0.0023180354739745
                   228  -0.011499786038565
                 64.71  -0.046826727009787
                 21.06   -0.12846616875047
                 7.495   -0.30126627246289
                 2.797   -0.25563070233011
                0.5215      1.093793361012
 s    1 1.00
                0.1596                   1
 p    3 1.00
                 9.439   0.056979251590039
                 2.002    0.31320721150073
                0.5456    0.76037674173753
 p    1 1.00
                0.1517                   1
 d    1 1.00
                  0.55                   1

2 0
 s    8 1.00
                  6665  0.00069158396281299
                  1000  0.0053257961529341
                   228   0.027060721042034
                 64.71    0.10165684614077
                 21.06     0.2745748236174
                 7.495    0.44829431892377
                 2.797    0.28490261071525
                0.5215   0.015194859206082
 s    8 1.00
                  6665  -0.00029326965268655
                  1000  -0.0023180354739745
                   228  -0.011499786038565
                 64.71  -0.046826727009787
                 21.06   -0.12846616875047
                 7.495   -0.30126627246289
                 2.797   -0.25563070233011
                0.5215      1.093793361012
 s    1 1.00
                0.1596                   1
 p    3 1.00
                 9.439   0.056979251590039
                 2.002    0.31320721150073
                0.5456    0.76037674173753
 p    1 1.00
                0.1517                   1
 d    1 1.00
                  0.55                   1

3 0
 s    8 1.00
                  6665  0.00069158396281299
                  1000  0.0053257961529341
                   228   0.027060721042034
                 64.71    0.10165684614077
                 21.06     0.2745748236174
                 7.495    0.44829431892377
                 2.797    0.28490261071525
                0.5215   0.015194859206082
 s    8 1.00
                  6665  -0.00029326965268655
                  1000  -0.0023180354739745
                   228  -0.011499786038565
                 64.71  -0.046826727009787
                 21.06   -0.12846616875047
                 7.495   -0.30126627246289
                 2.797   -0.25563070233011
                0.5215      1.093793361012
 s    1 1.00
                0.1596                   1
 p    3 1.00
                 9.439   0.056979251590039
                 2.002    0.31320721150073
                0.5456    0.76037674173753
 p    1 1.00
                0.1517                   1
 d    1 1.00
                  0.55                   1

4 0
 s    8 1.00
                  6665  0.00069158396281299
                  1000  0.0053257961529341
                   228   0.027060721042034
                 64.71    0.10165684614077
                 21.06     0.2745748236174
                 7.495    0.44829431892377
                 2.797    0.28490261071525
                0.5215   0.015194859206082
 s    8 1.00
                  6665  -0.00029326965268655
                  1000  -0.0023180354739745
                   228  -0.011499786038565
                 64.71  -0.046826727009787
                 21.06   -0.12846616875047
                 7.495   -0.30126627246289
                 2.797   -0.25563070233011
                0.5215      1.093793361012
 s    1 1.00
                0.1596                   1
 p    3 1.00
                 9.439   0.056979251590039
                 2.002    0.31320721150073
                0.5456    0.76037674173753
 p    1 1.00
                0.1517                   1
 d    1 1.00
                  0.55                   1

5 0
 s    8 1.00
                  6665  0.00069158396281299
                  1000  0.0053257961529341
                   228   0.027060721042034
                 64.71    0.10165684614077
                 21.06     0.2745748236174
                 7.495    0.44829431892377
                 2.797    0.28490261071525
                0.5215   0.015194859206082
 s    8 1.00
                  6665  -0.00029326965268655
                  1000  -0.0023180354739745
                   228  -0.011499786038565
                 64.71  -0.046826727009787
                 21.06   -0.12846616875047
                 7.495   -0.30126627246289
                 2.797   -0.25563070233011
                0.5215      1.093793361012
 s    1 1.00
                0.1596                   1
 p    3 1.00
                 9.439   0.056979251590039
                 2.002    0.31320721150073
                0.5456    0.76037674173753
 p    1 1.00
                0.1517                   1
 d    1 1.00
                  0.55                   1

6 0
 s    8 1.00
                  6665  0.00069158396281299
                  1000  0.0053257961529341
                   228   0.027060721042034
                 64.71    0.10165684614077
                 21.06     0.2745748236174
                 7.495    0.44829431892377
                 2.797    0.28490261071525
                0.5215   0.015194859206082
 s    8 1.00
                  6665  -0.00029326965268655
                  1000  -0.0023180354739745
                   228  -0.011499786038565
                 64.71  -0.046826727009787
                 21.06   -0.12846616875047
                 7.495   -0.30126627246289
                 2.797   -0.25563070233011
                0.5215      1.093793361012
 s    1 1.00
                0.1596                   1
 p    3 1.00
                 9.439   0.056979251590039
                 2.002    0.31320721150073
                0.5456    0.76037674173753
 p    1 1.00
                0.1517                   1
 d    1 1.00
                  0.55                   1

7 0
 s    3 1.00
                 13.01   0.033498726389998
                 1.962    0.23480080117413
                0.4446     0.8136829578829
 s    1 1.00
                 0.122                   1
 p    1 1.00
                 0.727                   1

8 0
 s    3 1.00
                 13.01   0.033498726389998
                 1.962    0.23480080117413
                0.4446     0.8136829578829
 s    1 1.00
                 0.122                   1
 p    1 1.00
                 0.727                   1

9 0
 s    3 1.00
                 13.01   0.033498726389998
                 1.962    0.23480080117413
                0.4446     0.8136829578829
 s    1 1.00
                 0.122                   1
 p    1 1.00
                 0.727                   1

10 0
 s    3 1.00
                 13.01   0.033498726389998
                 1.962    0.23480080117413
                0.4446     0.8136829578829
 s    1 1.00
                 0.122                   1
 p    1 1.00
                 0.727                   1

11 0
 s    3 1.00
                 13.01   0.033498726389998
                 1.962    0.23480080117413
                0.4446     0.8136829578829
 s    1 1.00
                 0.122                   1
 p    1 1.00
                 0.727                   1

12 0
 s    3 1.00
                 13.01   0.033498726389998
                 1.962    0.23480080117413
                0.4446     0.8136829578829
 s    1 1.00
                 0.122                   1
 p    1 1.00
                 0.727                   1

[5d]
[7f]
[9g]

[MO]
 Sym= A
 Ene=    -10.19002975
 Spin= Alpha
 Occup=    2.00000
   1      0.35528871021623
   2    0.0043925371275672
   3    -0.002256759094078
   4    -4.4112296297987e-14
   5    0.00081076719292982
   6    -4.4518645511676e-17
   7    1.7874090389477e-13
   8    -0.00060637509310721
   9    3.271893233322e-17
  10    0.0001224668374975
  11    -1.5214112098244e-17
  12    2.3151173760721e-18
  13    -0.00063693036332325
  14    5.4249753058954e-14
  15      0.43513467004485
  16    0.0057943334630617
  17    -0.0042658915179087
  18    0.00064850410750599
  19    0.00044527351026737
  20    -9.1326228207419e-21
  21    8.7384129247542e-05
  22    -7.7038262779223e-05
  23    -1.5474788775807e-19
  24    -2.2077965624277e-05
  25    8.0207536061054e-19
  26    -9.2790990168594e-19
  27    0.00039848379489959
  28    0.00053714614393464
  29       0.4351346699368
  30    0.0057943334611799
  31    -0.0042658915150692
  32    0.00064850410741734
  33    -0.0004452735104226
  34    -3.4844910156285e-18
  35    8.7384128816013e-05
  36    7.7038263707121e-05
  37    1.0874965574481e-18
  38    -2.2077965481985e-05
  39    8.1813591446705e-20
  40    8.714076275657e-21
  41    0.00039848379507144
  42    -0.00053714614379319
  43      0.35528871013667
  44     0.004392537126363
  45    -0.0022567590935137
  46    -2.551534658169e-14
  47    -0.00081076719283627
  48    8.7172016162655e-19
  49    8.6172017935237e-14
  50    0.00060637509286733
  51    9.1276336146289e-19
  52    0.00012246683734653
  53    -1.7367217392029e-19
  54    -2.03638737424e-20
  55    -0.0006369303631252
  56    -3.4099115857719e-14
  57      0.43513466991224
  58    0.0057943334607783
  59    -0.0042658915146858
  60    -0.00064850410742064
  61    -0.00044527351037429
  62    3.3103395675742e-18
  63    -8.7384128750152e-05
  64    7.7038263647633e-05
  65    -4.0080668113456e-18
  66    -2.2077965509351e-05
  67    -4.2384010443916e-19
  68    8.9279885789953e-19
  69    0.00039848379500169
  70    0.00053714614378375
  71      0.43513466999809
  72    0.0057943334622747
  73    -0.0042658915169895
  74    -0.0006485041075054
  75    0.00044527351023643
  76    -1.2134648430691e-19
  77    -8.7384129003507e-05
  78    -7.7038262710796e-05
  79    2.8931323467865e-18
  80    -2.2077965610566e-05
  81    7.5040996334728e-19
  82    7.7204819090046e-19
  83    0.00039848379484587
  84    -0.00053714614390664
  85    -0.000961651488274
  86    0.0012511593565762
  87    -1.8314243628622e-14
  88    0.00069271436290974
  89    -4.79110140332e-18
  90    -0.0011811819566255
  91    0.0012316834563399
  92    0.0007578515298164
  93    0.00045325918766349
  94    3.6169618338931e-20
  95    -0.0011811819563466
  96    0.0012316834563216
  97    0.00075785152957556
  98    -0.00045325918760534
  99    1.8396422848643e-19
 100    -0.0009616514880956
 101     0.001251159356343
 102    -1.1692566970463e-14
 103    -0.0006927143627506
 104    -1.3464222993438e-19
 105    -0.0011811819562912
 106    0.0012316834562706
 107    -0.00075785152954026
 108    -0.00045325918756795
 109    -5.212521808753e-20
 110    -0.0011811819565102
 111    0.0012316834562793
 112    -0.00075785152973658
 113    0.00045325918759954
 114    -1.8784296417448e-19
 Sym= A
 Ene=    -10.18985526
 Spin= Alpha
 Occup=    2.00000
   1    -1.0143381842798e-12
   2    -5.2199693166553e-14
   3    1.9323491598674e-14
   4    0.00096987747512374
   5    1.477925059128e-14
   6    -1.4300650254764e-16
   7    -0.0036117453273546
   8    1.4265392130017e-14
   9    8.5656830128421e-17
  10    -1.3091515620065e-14
  11    -1.815477131603e-17
  12    4.2219743948584e-17
  13    6.3456429563912e-15
  14    -0.0011987548560615
  15     -0.50334096028513
  16    -0.0082649222821782
  17     0.008925933196418
  18    1.2597711956485e-05
  19    -0.000551596496724
  20    -4.3403442515384e-17
  21    -0.0022105688727375
  22    0.00080767116351702
  23    9.5461345079327e-17
  24    -8.4377830772786e-05
  25    7.7583281436272e-18
  26    -7.7362247572887e-17
  27    -0.00085069620512495
  28    -0.00027301509460662
  29      -0.5033409601542
  30    -0.0082649222798826
  31    0.0089259331931332
  32    1.2597712007376e-05
  33    0.0005515964968563
  34    -2.9986455266367e-16
  35    -0.0022105688720123
  36    -0.00080767116426452
  37    -8.0981743813884e-18
  38    -8.4377830980809e-05
  39    6.3295880020819e-19
  40    -7.0961604302393e-20
  41    -0.00085069620524506
  42    0.00027301509446826
  43    3.2760359750107e-11
  44    4.8288403087932e-13
  45    -3.8363669306283e-13
  46    0.00096987747496044
  47    -4.1311042072535e-14
  48    -2.4674547717934e-18
  49    -0.0036117453269956
  50    -5.0791333887025e-15
  51    3.5063271499914e-18
  52    1.2017809803765e-14
  53    -1.7143685980801e-18
  54    -6.6073964546959e-19
  55    -5.3099889677048e-14
  56    0.0011987548558611
  57      0.50334096020856
  58    0.0082649222806799
  59    -0.0089259331939781
  60    1.2597711923043e-05
  61    -0.0005515964968354
  62     3.95014711635e-18
  63    -0.0022105688720356
  64    0.00080767116399491
  65    -3.2697558769664e-18
  66    8.4377830967333e-05
  67    1.2355566897255e-19
  68    3.5288810522289e-19
  69    0.00085069620521285
  70    0.00027301509456178
  71      0.50334096028703
  72    0.0082649222820831
  73    -0.0089259331959656
  74    1.2597711940475e-05
  75    0.00055159649679744
  76    -8.2308625257585e-19
  77    -0.0022105688726545
  78    -0.00080767116378733
  79    4.2943797280112e-18
  80    8.4377830790993e-05
  81    -1.3861500880522e-19
  82    1.2829455299735e-18
  83    0.00085069620519865
  84    -0.00027301509459678
  85    -1.8804133211597e-15
  86    5.407271775418e-15
  87    0.00040372511870308
  88    -3.6030845416777e-15
  89    -1.6783524291823e-18
  90    0.0012233967799474
  91    -0.00068959246662142
  92    -0.00081990334471882
  93    -0.00070433926108925
  94    -8.2263585624662e-19
  95    0.0012233967795849
  96    -0.00068959246661352
  97    -0.00081990334443252
  98    0.00070433926097203
  99    -3.7689245377078e-19
 100    -8.1981878095372e-14
 101    8.2176648210887e-14
 102    0.00040372511865904
 103    -6.7190952090183e-14
 104    -3.8338966040607e-19
 105    -0.0012233967797268
 106    0.00068959246670928
 107    -0.00081990334454127
 108    -0.0007043392610054
 109    9.5292276809966e-20
 110    -0.0012233967799594
 111    0.00068959246669382
 112    -0.00081990334470939
 113    0.00070433926110884
 114    -4.0822714642373e-19
 Sym= A
 Ene=    -10.18976224
 Spin= Alpha
 Occup=    2.00000
   1     -0.53582143560044
   2    -0.0086977041024318
   3    0.0084656155612815
   4    -3.3220463893767e-14
   5    -0.00034564571913952
   6    -1.023837066942e-17
   7    1.5367280975356e-13
   8    -0.0010077435059846
   9    -3.1789418700758e-17
  10    -0.0002378231198533
  11    -3.6699212967575e-18
  12    -1.0941042847174e-16
  13    0.00081068025078565
  14    4.0491682683769e-14
  15     -0.33137398970845
  16    -0.0055520035910283
  17    0.0069245114341772
  18    -0.00052116664855683
  19    0.00066437962472694
  20    -1.1621574334406e-18
  21    0.00017637662298054
  22    -0.0034894066360116
  23    -4.8162272148682e-19
  24    9.2384322227643e-05
  25    4.9816762406836e-19
  26    -6.320890174668e-19
  27    0.00072628297693775
  28    -0.00080072380287492
  29      0.33137398981748
  30     0.005552003592496
  31    -0.0069245114351889
  32    0.00052116664872568
  33    0.00066437962462931
  34    -2.814454634387e-18
  35    -0.00017637662299641
  36    -0.0034894066359314
  37    6.4097603327909e-19
  38    -9.2384322188765e-05
  39    2.3380870828381e-19
  40    2.2580432582627e-19
  41    -0.00072628297684875
  42    -0.00080072380303563
  43      0.53582143571939
  44    0.0086977041041406
  45    -0.0084656155628847
  46    -3.3397127861106e-14
  47    -0.00034564571930538
  48    1.3396820073588e-18
  49    1.1472994218345e-13
  50    -0.0010077435061956
  51    1.8643600116304e-19
  52    0.00023782311980617
  53    2.1310678935869e-20
  54    -1.4371169121043e-20
  55    -0.00081068025094203
  56    -4.27494554697e-14
  57      0.33137398978238
  58    0.0055520035919088
  59    -0.0069245114345207
  60    -0.00052116664872654
  61    0.00066437962466911
  62    2.2587400002059e-18
  63    0.00017637662313002
  64    -0.0034894066359525
  65    -1.8991491610958e-18
  66    -9.2384322197247e-05
  67    -4.7565007449908e-19
  68    8.5162196481001e-19
  69    -0.00072628297690943
  70     0.000800723803017
  71     -0.33137398974383
  72    -0.0055520035916044
  73    0.0069245114347903
  74    0.00052116664855652
  75    0.00066437962468931
  76    1.8114849549656e-18
  77    -0.00017637662279237
  78    -0.0034894066359071
  79    2.6300175386487e-19
  80    9.2384322222675e-05
  81     8.82812901935e-19
  82    1.1189268851334e-18
  83    0.00072628297687998
  84    0.00080072380289621
  85     0.001293719591546
  86    -0.00089824119338952
  87    -1.4829231988746e-14
  88    -0.0011260823629208
  89    -3.3647971683931e-18
  90    0.00082141963588257
  91    -0.00029769831978012
  92    -0.00078371414881143
  93    -5.1862430929937e-05
  94    3.8132944934038e-20
  95    -0.00082141963616723
  96    0.00029769832009438
  97    0.00078371414899788
  98    -5.1862431041758e-05
  99    1.810678886803e-19
 100    -0.0012937195918725
 101    0.00089824119366028
 102    -1.4301477232737e-14
 103    -0.0011260823631722
 104    -1.2961116747739e-19
 105    -0.00082141963608551
 106    0.00029769832004089
 107    -0.00078371414894029
 108    -5.1862430993864e-05
 109    -1.7234180854689e-19
 110    0.00082141963597092
 111    -0.0002976983198205
 112    0.00078371414886905
 113    -5.1862430982051e-05
 114    -8.710431162317e-20
 Sym= A
 Ene=    -10.18936103
 Spin= Alpha
 Occup=    2.00000
   1    3.042124705576e-11
   2    5.3584824262847e-13
   3    -1.0088965488936e-12
   4    0.00078621128078992
   5    -2.3273267168768e-15
   6    -1.4672464567663e-17
   7    -0.0014112861906597
   8    3.7859327887199e-13
   9    1.2103631227496e-17
  10    -6.311222194633e-14
  11    2.6649286457658e-17
  12    2.7846370815947e-17
  13    4.1638214832651e-15
  14    -0.0009660412183673
  15     -0.50357805791629
  16    -0.0088778374858407
  17     0.012670511126104
  18    -7.9850024505201e-05
  19    0.00040744528164144
  20    2.6160556409835e-17
  21    -0.0030719387302598
  22    -0.0025772157443536
  23    -1.075476060506e-16
  24    0.00092067678284618
  25    1.925539239221e-17
  26    2.0651600031089e-17
  27    0.00031299832065073
  28    -0.0004104921592006
  29        0.503578058023
  30    0.0088778374875466
  31    -0.012670511127853
  32    7.985002453145e-05
  33    0.00040744528153229
  34    -7.7188883354666e-17
  35    0.0030719387306469
  36    -0.0025772157441781
  37    -1.1088777853343e-18
  38    -0.00092067678281282
  39    7.9411716134079e-21
  40    3.3172217239954e-19
  41    -0.00031299832048932
  42    -0.00041049215927999
  43    -4.1642397876878e-12
  44    -1.2208787208745e-13
  45    5.4691748033426e-13
  46    -0.0007862112809918
  47    -1.8135756475454e-14
  48    -2.0225352331611e-19
  49    0.0014112861914022
  50    2.6719355361626e-13
  51    -1.1195835182115e-19
  52    3.2397814012382e-14
  53    -1.8733344209892e-19
  54    2.2579480390025e-19
  55    -2.6806493631042e-14
  56    -0.00096604121861534
  57     -0.50357805799274
  58    -0.0088778374869883
  59     0.012670511126463
  60    7.9850024526422e-05
  61    -0.00040744528152007
  62    -2.9581683442227e-18
  63    0.0030719387301665
  64    0.0025772157438754
  65    1.2949901823702e-18
  66    0.00092067678273492
  67    6.3829161788793e-20
  68    -5.5523552624128e-20
  69    0.00031299832046303
  70    -0.00041049215929321
  71      0.50357805789016
  72    0.0088778374852709
  73    -0.012670511124524
  74    -7.9850024557952e-05
  75    -0.00040744528164055
  76    -7.1144467962137e-19
  77    -0.0030719387296452
  78    0.0025772157440328
  79    -2.5753768823837e-18
  80    -0.00092067678273498
  81    -1.1631650861659e-18
  82    6.3513183912682e-20
  83    -0.00031299832065263
  84    -0.00041049215926066
  85    -8.7159151305325e-14
  86    -2.7667935370312e-14
  87    0.00019947647279865
  88    6.6457278306096e-14
  89    -2.0703312559327e-18
  90    0.0014272708187566
  91    2.2493566293724e-05
  92    -0.0010943588431243
  93    -0.00051819482130686
  94    -3.8181666943639e-19
  95    -0.0014272708190134
  96    -2.249356611894e-05
  97    0.0010943588432966
  98    -0.00051819482144931
  99    2.967343247221e-19
 100    1.1550910181233e-14
 101    6.074504749666e-14
 102    -0.00019947647288155
 103    6.7456284475188e-15
 104    3.8657873395323e-20
 105    0.0014272708189284
 106    2.2493566052847e-05
 107    0.0010943588432418
 108    0.0005181948214205
 109    2.457586100073e-19
 110    -0.0014272708186789
 111    -2.2493566166774e-05
 112    -0.0010943588430752
 113    0.00051819482127249
 114    7.4592620390685e-20
 Sym= A
 Ene=    -10.18925642
 Spin= Alpha
 Occup=    2.00000
   1      0.61660124927189
   2     0.010708890508177
   3    -0.014886572283173
   4    -1.9125982627894e-14
   5    -7.1110052763222e-05
   6    -1.0903753573817e-17
   7    -9.3548761966946e-15
   8    0.0045204406468407
   9    9.9386599469733e-17
  10    -0.0010602357408681
  11    -3.8665511427153e-17
  12    5.3689505846553e-17
  13    -0.000295901216897
  14    2.2382817184704e-14
  15     -0.25196332612964
  16    -0.0046137514821611
  17    0.0069465247393391
  18    0.00046783817238743
  19    -0.00051070162281618
  20    -5.3985009163154e-19
  21    -0.0025841403047006
  22    -9.523524624127e-05
  23    -1.340593894608e-18
  24    0.00053279386493223
  25    5.2029729117092e-19
  26    2.6426658421156e-19
  27    -0.00074860589517487
  28    0.00036785340902505
  29     -0.25196332609226
  30    -0.004613751481399
  31    0.0069465247375871
  32    0.00046783817227863
  33    0.00051070162277621
  34    1.664995735565e-18
  35    -0.002584140303855
  36    9.523524619397e-05
  37    -2.1974664957693e-19
  38    0.00053279386466593
  39    1.3962587469055e-19
  40    9.9114681463209e-20
  41    -0.0007486058951479
  42    -0.00036785340886311
  43      0.61660124913959
  44      0.01070889050586
  45     -0.01488657227967
  46    7.1815114054213e-15
  47    7.1110052732532e-05
  48    1.4872899697851e-18
  49    3.0400501941273e-14
  50    -0.0045204406457643
  51    -1.8506061896645e-18
  52    -0.0010602357405829
  53    9.1223829338158e-20
  54    -2.2689669395947e-19
  55    -0.0002959012169151
  56    9.7145561317045e-15
  57     -0.25196332608258
  58    -0.004613751481216
  59     0.006946524737306
  60    -0.00046783817228193
  61    0.00051070162279506
  62    -2.4441245669855e-18
  63    0.0025841403038357
  64    9.5235246058126e-05
  65    3.032079465989e-18
  66    0.00053279386463724
  67    3.2836932787321e-20
  68    -2.7916453434663e-19
  69    -0.00074860589516428
  70    0.00036785340887321
  71     -0.25196332615005
  72    -0.0046137514825054
  73    0.0069465247397705
  74    -0.00046783817238361
  75    -0.00051070162281016
  76    3.2203463597645e-19
  77    0.0025841403047451
  78    -9.5235246369928e-05
  79    -1.8069236053229e-18
  80    0.00053279386496206
  81    -5.6424406413817e-19
  82    1.3460244637131e-19
  83    -0.00074860589517574
  84    -0.000367853409012
  85     -0.00176165180384
  86    9.1462413227681e-05
  87    -2.9660767135956e-15
  88    0.0014690508640825
  89    2.7995223906371e-18
  90    0.00072128837332806
  91    0.00012623035493417
  92    -0.00045121420997349
  93    -0.0004575865421517
  94    6.0968001278737e-20
  95    0.00072128837320396
  96    0.00012623035480395
  97    -0.00045121420990279
  98    0.00045758654206871
  99    -1.3890345856427e-19
 100    -0.0017616518034812
 101     9.14624132358e-05
 102    -3.4625693462065e-17
 103    -0.0014690508637775
 104    -9.8718913152306e-20
 105    0.00072128837317516
 106    0.00012623035480292
 107    0.00045121420987657
 108    0.00045758654206169
 109    8.1203436649565e-20
 110    0.00072128837338162
 111    0.00012623035491437
 112    0.00045121421001629
 113    -0.00045758654217127
 114    -6.8511201000566e-20
 Sym= A
 Ene=    -10.18908039
 Spin= Alpha
 Occup=    2.00000
   1     -0.46900341060634
   2    -0.008751720079601
   3     0.017955703658136
   4    3.6222506317286e-14
   5    0.00027968947569212
   6    -4.0498619855179e-18
   7    -9.1552597120939e-14
   8    -0.0069486367381796
   9    3.3265975515284e-17
  10    0.0013823315539875
  11    -2.7058753385878e-18
  12    -2.387819279457e-18
  13    -0.00037269268448294
  14    -4.0991772621094e-14
  15      0.37934258083143
  16    0.0072678092703155
  17    -0.016358849170641
  18    -0.00033169348982157
  19    -9.2897421485894e-05
  20    9.2910493952933e-19
  21    0.0059492263289281
  22    0.0030563401473689
  23    -1.4730139826441e-18
  24    -0.0013957695835313
  25    -4.9696920776153e-21
  26    8.4782217654358e-19
  27    -0.00015159214071024
  28    -0.00048408644509725
  29     -0.37934258091703
  30    -0.0072678092717279
  31     0.016358849172491
  32    0.00033169348986791
  33    -9.2897421351042e-05
  34    2.843097325771e-18
  35    -0.0059492263295046
  36    0.0030563401473611
  37    -1.675643475826e-19
  38    0.0013957695836354
  39    1.2012998897674e-19
  40    -9.529265795985e-21
  41    0.00015159214052711
  42    -0.0004840864451317
  43      0.46900341070471
  44    0.0087517200814605
  45    -0.017955703661095
  46    -2.712147272659e-14
  47    0.00027968947576467
  48    1.1092411275596e-18
  49    4.8820344710576e-14
  50    -0.0069486367391888
  51    -2.133935954856e-18
  52    -0.0013823315542007
  53    4.0361082193911e-20
  54    -2.8332722557565e-19
  55    0.00037269268446807
  56    -3.0352960018614e-14
  57      -0.3793425809503
  58    -0.0072678092723023
  59     0.016358849173261
  60    -0.00033169348985986
  61    -9.2897421387635e-05
  62    -3.2658863134708e-18
  63    0.0059492263296996
  64     0.003056340147492
  65    3.5606474149746e-18
  66    0.0013957695837087
  67    2.1548029581593e-19
  68    -5.8690297688079e-19
  69    0.0001515921405588
  70    0.00048408644510228
  71      0.37934258087273
  72     0.007267809271028
  73    -0.016358849171589
  74    0.00033169348981302
  75    -9.2897421511805e-05
  76    -1.5561245337455e-18
  77    -0.0059492263291547
  78    0.0030563401474685
  79    -1.3647753863929e-18
  80    -0.0013957695836028
  81    -6.8423909241767e-19
  82    -3.280877911839e-19
  83    -0.00015159214072774
  84    0.00048408644506452
  85      0.00134444909114
  86    0.00081284642548719
  87    9.7158004085514e-15
  88    -0.0010697014764492
  89    4.277609591062e-18
  90    -0.0011151417324892
  91    -0.00093567903012949
  92    0.00074056421663163
  93    0.00047021486687957
  94    1.4983931219448e-19
  95     0.001115141732722
  96    0.00093567903006406
  97    -0.00074056421677854
  98    0.0004702148670104
  99    -2.9227346408355e-19
 100    -0.0013444490914227
 101    -0.00081284642557149
 102    -5.4149113253122e-15
 103    -0.0010697014766936
 104    -4.6081649149507e-20
 105    0.0011151417328184
 106    0.00093567903005941
 107    0.0007405642168525
 108    0.00047021486704509
 109    2.0210741516876e-19
 110    -0.0011151417326005
 111    -0.00093567903010399
 112    -0.00074056421671772
 113    0.00047021486692634
 114    1.093555450006e-19
 Sym= A
 Ene=   -0.8537692421
 Spin= Alpha
 Occup=    2.00000
   1    -0.012803391818907
   2      0.17955287336979
   3     0.099817425529656
   4    -1.9545206005438e-14
   5    -0.066310967006232
   6    7.0018346700047e-17
   7    -3.4230481154316e-13
   8    -0.012149429005448
   9    7.3522789652654e-18
  10    -0.0081357099345031
  11    2.7946523795766e-17
  12    -1.7835274347177e-16
  13    0.0034193526406149
  14    2.6974220595485e-14
  15    -0.012771949277601
  16       0.1795727434465
  17     0.099893971304865
  18    -0.057485451538099
  19     -0.03326011442599
  20    -7.7356371417135e-18
  21    -0.010391871298808
  22    -0.0059604521843745
  23    3.5084356252476e-17
  24    -0.0081397335377649
  25    -1.4637103010528e-17
  26    -3.4523061766036e-18
  27    -0.0017142695855359
  28    -0.002969336095425
  29    -0.012771949277508
  30      0.17957274344659
  31     0.099893971302938
  32    -0.057485451538077
  33     0.033260114426018
  34    -5.4972056549281e-18
  35    -0.010391871298064
  36    0.0059604521837671
  37    1.6847439135942e-17
  38    -0.0081397335376971
  39    -3.9109481496347e-18
  40    -4.9460388814701e-18
  41    -0.0017142695855285
  42    0.0029693360954226
  43    -0.012803391818951
  44      0.17955287336961
  45     0.099817425530693
  46    8.9007321438148e-15
  47     0.066310967006204
  48    4.3315687354072e-17
  49    -1.7489852294389e-13
  50     0.012149429006112
  51    8.347940184141e-18
  52    -0.0081357099345341
  53    -7.8783686854497e-18
  54    1.5503874663548e-17
  55    0.0034193526406174
  56    -6.3568464204523e-15
  57    -0.012771949277543
  58      0.17957274344655
  59     0.099893971303247